    1152
 i =     6370, time =     6370.000, E =     -1309.1049951679
  C        26.2966904735       33.1962285953      143.1683244570
  C        26.5538401896       34.5045367960      143.5585736355
  S        27.8703771948       35.2557813645      142.5176239412
  C        27.9793259858       33.8317858408      141.5215563111
  C        27.0924346639       32.7223747043      142.0470009699
  C        27.2048550271       31.5777775485      141.2617956663
  S        28.3013075353       31.6978342524      140.0233698100
  C        28.7400470728       33.4873103971      140.3536159810
  C        26.2985451326       35.2006767356      144.9168961473
  O        26.1226360620       34.7285263317      146.0376125570
  C        29.8320362939       34.0671885153      139.6016664797
  S        30.5379522502       33.1901690111      138.1758352824
  C        31.4487940954       34.5531424371      137.7059682845
  C        31.1658393255       35.6256830841      138.6410097592
  C        30.1598707299       35.3665485009      139.6427013679
  C        31.8675677790       36.8632893209      138.4475554705
  C        32.7837291410       36.9183262462      137.3614483150
  C        33.1687360018       35.8366804036      136.5576215996
  C        32.4939335994       34.6305371808      136.7122442510
  S        33.9406666052       38.2679033253      136.9853754619
  C        34.8363864509       37.2881980769      135.8880756456
  C        34.3647885648       35.9873257186      135.7800428361
  C        35.9168529446       37.8188688997      135.1671374118
  S        36.2518428669       39.5942081303      135.1179630996
  C        37.4270636417       39.4430762649      133.9013770368
  C        37.6609051247       38.0895129916      133.6974198414
  C        37.0264108301       37.1276923447      134.5597922505
  C        37.3896370225       35.7583357434      134.2620512887
  C        38.3142101378       35.6799403025      133.2518312607
  S        38.8104344157       37.2207532914      132.5348141770
  C        38.8555289043       34.4834748039      132.5165368878
  O        38.3325528308       33.3859089951      132.4574205305
  C        38.1936571835       40.5826023807      133.3897158633
  S        38.0457026406       42.1944701348      134.1412565705
  C        39.1381129062       42.8406416660      132.9036757966
  C        39.5201518971       41.9114173734      131.8543534524
  C        38.9285953023       40.6108953072      132.1634257468
  C        40.2713890529       42.2442319236      130.6481849647
  C        40.6259587665       43.6211795483      130.6053056656
  C        40.4314277351       44.5640237819      131.6653844251
  C        39.5796526533       44.2880095291      132.8110086859
  S        41.4745022470       44.4348157136      129.2591964070
  C        41.5587053640       45.9661108384      130.1592264341
  C        40.9811790372       45.8233677510      131.4145986992
  C        41.7889952334       47.1852091552      129.3461285164
  S        41.7084822054       46.9029403773      127.6160844135
  C        41.2917008019       48.6163181496      127.4573138401
  C        41.1599254730       49.3051252559      128.6402744441
  C        41.3736317314       48.4867818983      129.7466198389
  C        41.0697491333       49.2019711585      131.0086785974
  C        40.6796133316       50.5197533339      130.7954787695
  S        40.5836563010       50.8717023903      129.0480097910
  C        40.4500090511       51.6517527218      131.6709250439
  O        40.3796577254       51.5963743163      132.8732947250
  C        41.1539725035       49.1377305616      126.1071070541
  S        41.0812056015       50.8741783518      125.7211857078
  C        41.2994965094       50.5841335554      124.0458930402
  C        41.3861100460       49.2032655442      123.7304562920
  C        41.0934315020       48.4440078699      124.9171266734
  C        41.6773722128       48.7738328878      122.4041677380
  C        42.1598314390       49.8016961738      121.5374073814
  C        42.1052983690       51.1845634263      121.8024927048
  C        41.6589091170       51.6096931314      123.1042224315
  S        42.6770655387       49.6020583637      119.8482401106
  C        42.9588050030       51.3351409018      119.6092113557
  C        42.5394252089       52.0501159721      120.7124232430
  C        43.4254294994       51.5964815699      118.2364110516
  S        43.5268689041       50.2927256928      116.9837052736
  C        44.3539275461       51.3339355520      115.8316280581
  C        44.3621680789       52.6807207924      116.3247774623
  C        43.7835912338       52.8967083003      117.6237797637
  C        43.9225913098       54.2396315476      118.0923876471
  C        44.4423280364       55.1421994515      117.1134042627
  S        44.9706465723       54.2148319526      115.6084945622
  C        44.8669970646       56.5310542423      117.1483118061
  O        44.3804522303       57.3377092308      117.9450833023
  C        45.0677421198       50.9014306354      114.7910706886
  S        46.5599548704       51.7892295945      114.1921397198
  C        46.8433858408       50.5470460968      112.8720063162
  C        45.8880779278       49.4901798545      113.0473601823
  C        44.9889657743       49.6717575723      114.1803514633
  C        46.0814645446       48.3251876875      112.2133051184
  C        47.1496133343       48.4099445614      111.1595958663
  C        47.9916046664       49.5697600628      110.9794663601
  C        47.8144046177       50.7095315416      111.8748147297
  S        47.5845778109       47.2481801172      109.9369551429
  C        48.9394626034       48.2076967383      109.3268958032
  C        49.0465447911       49.3961649153      109.9902840970
  C        49.4052694952       47.9773305235      107.9933387134
  S        48.5615717180       46.7118431534      106.9685845174
  C        49.4821322149       47.2577862386      105.5047325490
  C        50.5477605334       47.9567206121      105.8857051111
  C        50.5260549614       48.4784276427      107.2935016509
  C        51.8095525944       49.2191502748      107.5420856597
  C        52.5822056158       49.3660464394      106.4151815215
  S        51.9415793305       48.4951726680      104.9855762174
  C        53.9983414360       49.8271884489      106.3165491192
  O        54.5028362497       50.8383999966      106.6871195364
  C        49.3000798454       46.6626144147      104.1735618078
  S        48.3137170805       45.2115366464      103.8655486090
  C        48.7951880029       45.1357131704      102.2051193806
  C        49.7202344301       46.1182844063      101.9224202380
  C        49.9415432192       47.0307598621      102.9805316200
  C        50.2834027926       46.1448830827      100.5685478331
  C        49.6019335257       45.3092823006       99.5716007977
  C        48.5789337109       44.3865866366       99.9382238640
  C        48.2132327621       44.2481607726      101.3112944369
  S        49.8262185801       45.3447552233       97.8433979419
  C        48.5606953626       44.2611445571       97.5978634966
  C        48.0222038968       43.7981821466       98.7571018581
  C        47.9829012620       43.9501496860       96.2931077686
  S        48.9313382488       44.1394040520       94.7715843093
  C        47.5572615614       43.5365692562       93.7105653995
  C        46.4616265724       43.4336088786       94.5312364775
  C        46.6714763825       43.5632167632       95.9142858138
  C        45.4208837386       43.4589780514       96.6288635458
  C        44.3233782967       43.1727743940       95.8225100138
  S        44.8480557238       42.9471939307       94.1165067669
  C        43.0203957333       42.7025421574       96.3001095530
  O        42.4479766394       41.8904979793       95.5762329026
  C        47.6537169286       43.3482289022       92.2946495279
  S        49.0545230093       43.9283965622       91.2653188802
  C        48.2735376733       43.1755056431       89.8003612605
  C        47.1093525718       42.4149314932       90.1849684700
  C        46.8800966775       42.3778702794       91.5947989070
  C        46.3324658602       41.7360898096       89.1418821741
  C        46.7429036330       41.9347879041       87.8232562897
  C        47.9685834085       42.5433856009       87.4354012526
  C        48.8023047831       43.0646564603       88.4804901112
  S        45.9028994618       41.4889317899       86.3651787869
  C        47.1456661414       42.1110356046       85.3236852137
  C        48.2312050985       42.6202448415       86.0585475525
  C        46.8940741058       42.1507650871       83.8900103606
  S        45.5172038726       41.2452558499       83.3376747518
  C        46.0522718840       41.2875038139       81.7011550982
  C        47.2316136353       42.0061239619       81.6342026269
  C        47.7684636192       42.5168883851       82.8236130506
  C        48.9984931984       43.2343273479       82.6306860509
  C        49.3854470452       43.2906926713       81.3140454658
  S        48.3216217913       42.3560863851       80.2625838629
  C        50.4992865552       44.0253721034       80.7339296756
  O        51.4413643664       44.6629144278       81.1711869159
  C        45.1287896252       40.7143333382       80.6480175226
  S        43.5720743082       39.9641752224       80.9978310125
  C        43.2735269144       39.6088650844       79.2965169102
  C        44.3448241809       40.0425417443       78.4880917311
  C        45.3760118242       40.7949767901       79.2908068729
  C        44.4403712643       39.7866101285       77.1074478567
  C        43.2430144492       39.1583982842       76.4826597049
  C        42.1558348919       38.6950446307       77.2866243115
  C        42.1528150613       38.9165239298       78.7352729498
  S        42.9026791338       38.8294629487       74.7585400280
  C        41.2137820660       38.4435643542       75.1514965157
  C        41.0517077524       38.2519197338       76.5028535594
  C        40.2114388677       38.3044057724       74.0469816563
  S        40.6865120526       39.1101970435       72.5845610772
  C        39.1548027322       38.7461389146       71.7853436263
  C        38.3097444822       38.1146853947       72.7300848514
  C        38.9264190364       37.8255390307       73.9957926524
  C        38.0943383438       37.0535082393       74.8793123866
  C        36.8651067860       36.6727512741       74.3203336476
  S        36.7244521972       37.3349000862       72.6324653632
  C        35.7755357367       35.8439863813       75.0216891245
  O        35.5431606431       35.6589993059       76.2350679699
  C        38.7192355665       39.4593384648       70.5967750086
  S        40.0170806603       40.2198611467       69.7607946978
  C        38.8853561505       40.8328990008       68.5102467616
  C        37.5231453835       40.4777655463       68.7942963037
  C        37.4943151905       39.6485992049       69.9288643418
  C        36.4111275206       40.9486297731       68.0197560368
  C        36.7821897283       41.7346715548       66.8906675317
  C        38.1383201328       42.1406639622       66.6257587398
  C        39.2617057743       41.7706406311       67.3927001983
  S        35.6669517505       42.5600029265       65.7024643036
  C        37.0605974471       43.0957125043       64.8283171279
  C        38.2884829005       42.7671330219       65.3613572941
  C        36.8177105551       43.7892762091       63.5862694992
  S        35.2423732125       43.4924668983       62.7430252131
  C        35.4815457453       44.6596146932       61.4601870470
  C        36.7662970687       45.1181489393       61.5964180965
  C        37.5793875856       44.6562963215       62.7557758991
  C        38.8074743588       45.3950626516       62.7820991845
  C        39.0696158899       46.2611503697       61.7313128652
  S        37.6744419946       46.2743987863       60.5967127828
  C        40.1449138690       47.2362148204       61.5756521518
  O        41.2121407133       47.3519055708       62.2028439887
  C        34.6932460991       44.8535583361       60.2828948205
  S        35.0265530965       46.0575963771       59.0087367390
  C        33.4875796768       45.5535655926       58.2210140667
  C        32.8579452979       44.4574847269       58.8594784916
  C        33.5000379068       44.2098040363       60.0798927868
  C        31.7295770324       43.8487937805       58.2520479318
  C        31.4103791508       44.1438887044       56.9102265267
  C        32.0970524509       45.2043180101       56.3207585331
  C        33.1883921197       45.9524575134       56.9625355955
  S        30.1224315427       43.5442570590       55.8756022392
  C        30.5613945774       44.7349195058       54.6202867642
  C        31.4497259701       45.6244893974       55.0727241811
  C        29.6138828647       44.9415606561       53.4739513513
  S        28.4288435218       43.6635079797       53.0943183288
  C        27.6330565888       44.5753207032       51.8259721323
  C        28.3705794779       45.7869974788       51.6926230702
  C        29.5379979175       45.9689278579       52.5198230562
  C        30.1127425794       47.2609760375       52.3039529956
  C        29.5200127668       48.0295950837       51.3837280433
  S        28.1838282022       47.2346375905       50.5460848718
  C        29.8592172760       49.4280259040       51.1038358779
  O        29.2093219044       50.4358699209       50.8183257265
  H        26.7325268620       44.2492886829       51.2703515651
  C        33.7896489147       47.1650344817       56.4284179122
  C        33.9505076023       48.3833517073       57.0801028376
  C        34.3309471609       49.4288558970       56.1706205451
  C        34.5487267762       49.0122760245       54.8824740191
  S        34.3164090386       47.3609522117       54.6998630973
  C        35.1395930750       49.6732881527       53.6922495109
  C        36.4019120404       49.0048707312       53.2051012022
  C        37.5788602652       49.4081034178       54.0576343516
  C        39.0041036699       48.8573471683       53.6385390442
  C        39.8025552496       48.1797738712       54.7205363391
  C        39.2811189492       46.8054439095       55.0299859817
  C        30.9815608308       42.7359213626       58.9631445492
  C        30.0801182585       41.8334861197       58.3843109352
  C        29.2326500303       41.1474443110       59.2172483957
  C        29.4453105845       41.4635976247       60.5629976569
  S        30.6464980810       42.7335167462       60.7260249254
  C        28.4199385851       41.0331727213       61.6031774182
  C        27.4701014960       42.1504421567       62.0754705790
  C        26.6877529941       42.7232257857       60.8980607760
  C        27.1406905598       43.8948555092       60.0558241651
  C        26.1492112997       44.5643194986       59.0486409106
  C        26.2031024046       46.0666236368       58.8213760705
  F        31.2292775667       47.6348409900       52.9644832447
  C        40.6776359424       41.8504025935       67.1420393912
  C        41.3022593391       43.0841624898       66.9862395506
  C        42.7304945351       43.0553149459       67.1166314766
  C        43.2166250310       41.7920263290       67.2848759848
  S        41.9024076804       40.6096038328       67.2881088291
  C        44.5658572435       41.2994801907       67.4764218669
  C        44.8938725687       40.5831556711       68.7577505786
  C        44.5205838006       41.5432282575       69.9457777974
  C        43.1310559890       41.3756884587       70.4747719448
  C        42.5631485487       42.5331717586       71.3349130420
  C        42.9991528673       42.4720702406       72.8080426382
  C        35.0433895158       40.5783081139       68.2255540123
  C        34.4932845388       39.6701374657       69.2168054822
  C        33.0795388733       39.5586407210       69.1532057478
  C        32.5306490059       40.1236356628       67.9716235096
  S        33.8078703349       41.0200825192       67.1366660660
  C        31.1388480991       39.9506127750       67.3777016523
  C        31.0967376032       39.0018803740       66.0164877722
  C        31.1958987569       39.9154273475       64.7868305527
  C        31.5578120629       38.9213962174       63.6208568070
  C        33.1010104150       38.7907402954       63.4308260692
  C        33.5607706386       37.3490468001       63.9144314530
  F        39.5990314526       45.2699453586       63.8842043632
  C        41.0478425099       38.4612979154       79.5668462398
  C        40.4465135950       39.3431253335       80.4866390136
  C        39.3645560279       38.7033034984       81.2340163408
  C        39.1616318888       37.4129032113       80.9478457396
  S        40.2370477396       36.9045919619       79.6012128517
  C        38.2900885283       36.3443926388       81.6352147825
  C        36.7711048034       36.4866920503       81.6512253863
  C        36.1165370953       35.1013751090       81.9295999061
  C        34.5680154513       35.3707655363       82.0700127376
  C        33.9635828240       34.5078562223       83.0890143012
  C        34.3036842679       34.7672796706       84.4836741941
  C        45.5868049870       40.2834532930       76.3139515769
  C        45.7099004016       40.5208438644       74.9117435670
  C        46.9385000286       41.0403445804       74.4827603856
  C        47.9597975548       41.1306963965       75.4218635333
  S        47.2570820594       40.7354507635       76.9649440803
  C        49.3871421783       41.6275278853       75.2050035158
  C        49.6996895939       43.1686272942       75.6043976573
  C        48.3691976554       43.9033077075       76.0442849501
  C        48.4058143459       45.3190726729       76.4624175803
  C        47.2372770589       45.5576246875       77.5288926056
  C        45.8854588877       44.7603831107       77.0994558041
  F        38.4453506628       36.5430687909       76.0995485534
  C        50.0252358603       43.8432456912       88.1540985372
  C        51.2553625467       43.8720565339       88.7242948389
  C        52.1621539239       44.9009331910       88.2083452209
  C        51.6778755459       45.7263995253       87.2682696814
  S        49.9322474620       45.2847993823       87.0196335726
  C        52.6541777159       46.6626671481       86.5017046951
  C        52.3498483598       46.5794937659       84.9028484778
  C        53.6553907538       46.6515923871       84.1416295073
  C        54.5245817984       47.8580814374       84.5252795150
  C        55.8537318397       48.1146899302       83.7582846000
  C        56.5917938943       49.3953825307       84.1110605138
  C        45.2171816706       40.8403198042       89.3782768108
  C        44.9943087925       40.0696849815       90.5205633984
  C        43.8224470937       39.1920099456       90.4114665042
  C        43.2492698178       39.2015748071       89.2086078781
  S        43.9483233397       40.4492544174       88.2184625258
  C        42.0169406792       38.4336066347       88.6195405944
  C        42.4767088293       37.3575663102       87.6439483047
  C        41.6527904386       37.4717048580       86.3009105938
  C        41.8720734023       38.7214134886       85.4580291898
  C        43.3362996491       38.9127799172       84.9208567682
  C        43.9697331872       37.7159515567       84.1905862071
  F        49.6524780274       43.8688204981       83.6753879206
  C        47.2492164582       43.2219674578      101.8228774997
  C        46.0462542944       42.7293975396      101.2994747450
  C        45.4918568387       41.6705970305      102.1764100965
  C        46.3506843362       41.1437688187      103.0981403025
  S        47.8364891099       42.0119976127      103.0602343720
  C        46.0499138452       39.9159945498      103.9706289010
  C        45.4434746677       40.1614654440      105.3905513439
  C        44.6627932552       41.5713838659      105.3747449328
  C        43.6179634593       41.3998109834      106.4463157648
  C        42.8980132442       42.7248981726      106.5833552988
  C        41.6567075854       42.8722485744      107.4975917853
  C        51.5702012915       46.8904838459      100.2623281231
  C        52.6084286998       47.2910045809      101.0699057907
  C        53.7759478110       47.5979650141      100.3466644862
  C        53.6447990245       47.6614390985       98.9959928033
  S        52.0604972115       47.1365410630       98.5300039341
  C        54.7293949474       47.6600948169       97.8461622071
  C        55.2421486363       49.0724477441       97.5964286066
  C        54.4046173984       49.9156416496       96.5640188551
  C        53.1770288061       50.4567637897       97.2987982794
  C        53.2662328902       51.5484642428       98.3364946584
  C        51.7902087372       51.7531551519       98.9224395143
  F        45.4410821455       43.2821069629       97.9409769705
  C        48.4563868956       51.9659671032      111.5977218352
  C        48.5765794637       52.6205539968      110.3561384146
  C        49.0408585952       53.9205061751      110.4080598134
  C        49.3266669660       54.3091790755      111.7578236575
  S        48.7725839484       53.0669805864      112.8866473876
  C        50.1041594484       55.6558792155      111.9647711334
  C        50.9891392987       55.8934302121      113.2302188220
  C        50.1139453506       56.3429537932      114.4371835734
  C        50.4748186922       55.6374280849      115.8396700207
  C        49.6010554854       54.4268253740      116.1196366997
  C        48.1712828818       54.7215091518      116.3486698500
  C        45.1923153112       47.1626205178      112.3342253652
  C        45.1136702420       46.5305621491      113.5585568734
  C        44.1151121863       45.4868829009      113.4291973256
  C        43.3379950942       45.3846745048      112.2585130473
  S        44.0643332137       46.5668635947      111.1077324642
  C        42.1843359345       44.3668130479      111.9622704097
  C        42.4278261877       42.9617481803      112.6529619278
  C        43.7913722372       42.4222104363      112.1584704406
  C        44.0653095721       42.4013387503      110.6135836379
  C        45.5945810574       42.3205518705      110.3404423407
  C        46.3583867107       43.6314592178      110.3519398273
  F        52.3578257093       49.3623461797      108.7480066214
  C        41.1415708976       52.9673492034      123.2344969285
  C        40.5743196238       53.7855629799      122.2337387367
  C        40.0046939731       54.9361301768      122.7866745093
  C        40.1387822045       55.0887469647      124.1340767012
  S        41.0868446756       53.7146129265      124.7889546488
  C        39.6380018012       56.1868753370      125.0151391534
  C        39.0789911983       55.5531401908      126.4239833631
  C        38.0093263765       54.4412393647      126.1109632857
  C        38.0438894546       53.1137090289      127.0049069402
  C        37.1245962431       52.0681047027      126.3142039841
  C        37.4139835695       51.6764837806      124.9436577586
  C        41.3548569403       47.4236792672      121.8838761638
  C        40.2387291964       46.6803202097      122.3328260415
  C        39.8848390384       45.5970888868      121.4702906217
  C        40.6101414709       45.4774006351      120.3348082085
  S        42.0060264812       46.7173270041      120.3935190734
  C        40.3261114935       44.6245469430      119.1032558229
  C        41.1491268448       43.3677818372      118.8349271566
  C        41.0327992735       42.3723604482      119.9952442377
  C        39.6856034713       41.9002882271      120.4902836375
  C        39.8814209645       40.6641539956      121.4635168386
  C        40.0490821832       39.4845373731      120.5966410154
  F        43.5315378808       54.7712508214      119.2737938809
  C        39.2841336863       45.2847625128      133.9208613728
  C        40.0815815437       46.1609190472      134.5412053385
  C        39.4666612458       46.7261200102      135.6551442177
  C        38.1847153097       46.2978198836      135.8984247702
  S        37.6928131767       45.1302558012      134.6129051868
  C        37.2774863056       47.0493112818      136.8630554927
  C        35.8313590007       46.8704383494      136.5159064185
  C        35.2828575541       48.0125841348      135.5105683909
  C        36.0458680142       48.1860457103      134.1798761626
  C        35.9738078636       49.6380879779      133.6565659424
  C        36.6669451874       50.6075687778      134.6007868126
  C        40.5277217058       41.2665796034      129.5310727406
  C        39.6390985309       40.3530729200      128.9867423701
  C        40.1297637585       39.7220829045      127.8191859410
  C        41.3813000290       40.0910789728      127.4886702094
  S        42.0276586163       41.4062317294      128.6473421290
  C        42.3254593753       39.6390913743      126.4275477532
  C        42.7055522653       40.7671069381      125.4137206194
  C        41.5007462934       41.3548166476      124.6831501678
  C        41.6975187909       42.7313129317      123.9242380806
  C        42.0185391785       43.8981209507      124.8603641633
  C        42.7605500411       44.9366124346      124.0571091592
  F        41.0493838451       48.6099018596      132.2371982041
  C        32.9282857773       33.2953440409      136.2367809395
  C        32.0103976938       32.4504225597      135.7831644106
  C        32.5166694315       31.2478679682      135.1051699875
  C        33.8864621304       31.2855309625      135.0435062231
  S        34.5914457119       32.6239767501      135.8306790667
  C        34.6714458617       30.3498584022      134.2213746386
  C        35.7751421582       31.0324152036      133.2462263291
  C        35.2563366282       31.8823958855      132.0582258205
  C        34.7565272227       33.2772149403      132.4891748531
  C        34.0898992728       34.0163493832      131.2804497162
  C        33.0689370871       33.4007728646      130.3991085280
  C        31.6653051061       38.0675997948      139.2250989953
  C        31.2677987596       39.3373330398      138.9065248476
  C        31.0201958176       40.2515988780      140.0247310692
  C        31.1701642959       39.6366758089      141.2601434629
  S        31.6175793486       37.9268547150      140.9886718588
  C        30.6403690042       40.2416871811      142.5364010037
  C        29.2985657157       39.6263050938      143.0890701374
  C        29.3603532971       38.1770717718      143.6112290373
  C        30.1623677696       38.1416079445      145.0018576687
  C        30.0255067096       36.7938124375      145.5626552181
  C        30.9105819976       35.9113463915      144.8054893246
  F        36.8518793021       34.6702526846      134.8221745647
  C        26.3627441770       30.3257278183      141.5614800448
  C        25.6944998285       30.0108110638      142.7633547965
  C        24.8946330148       28.8666532064      142.6236810160
  C        24.9184111545       28.2811798292      141.3281522148
  S        26.0080968998       29.1509845260      140.3116901873
  C        24.3841687656       27.0527176225      140.9885146593
  C        23.6400597609       26.3723794201      142.0184499099
  C        23.6618756249       26.9059856708      143.3603918325
  C        24.2175688377       28.1621811015      143.6661280617
  C        22.9024373944       25.1691012656      141.8303696484
  C        22.3782014214       24.6869985460      142.9775672856
  S        22.6557249161       25.8638819954      144.2833752616
  C        24.0966696953       28.7484804834      144.9982613585
  C        24.2666083257       28.0562024948      146.1615968050
  C        24.2074195270       28.8447991262      147.3214063782
  C        23.8866602322       30.1760382359      147.0769385169
  S        23.8124193596       30.4917115444      145.2925723278
  C        23.4880547467       31.2395632232      148.0334510998
  C        24.3159978608       32.5272432728      147.7469266322
  C        25.8539361918       32.1711569341      147.9494619048
  C        26.3337980895       31.7178619884      149.3125763699
  C        26.0570573396       32.5642510971      150.5642180604
  C        26.8674462740       32.2999882436      151.8314549164
  H        21.6186719832       23.8959902490      143.0108611284
  C        24.5138796490       26.4073613106      139.6130924517
  C        24.1561627808       26.8704496361      138.3906152247
  C        24.8447926215       26.3383177276      137.2792517866
  C        25.5503283077       25.1601052193      137.6074263218
  S        25.6199894697       24.9838395321      139.2954019208
  C        26.2738722506       24.3544220587      136.5451746981
  C        27.7808744483       24.7148997607      136.5275556398
  C        27.9063991095       26.2307349488      136.1428134428
  C        29.1972221974       26.8677695575      136.6843547278
  C        29.1293897326       27.0651534044      138.2477075867
  C        29.6529460019       28.4373021355      138.7101324789
  F        25.4775737463       32.5063218517      143.9020285291
  O        31.3464573642       49.6403379450       51.3208509502
  C        31.8424458474       50.9621840929       51.3998146723
  C        32.3438331122       51.4969916207       50.0520279606
  C        31.1916090475       51.7696197163       49.1095105644
  C        31.6251898426       52.4351413067       47.8102127315
  C        33.5212535051       50.5459355519       49.5554657824
  C        33.1877938544       49.2817241406       48.7801018794
  C        34.3236792477       48.1948018190       48.7753321042